 Entering Gaussian System, Link 0=g09
 Initial command:
 /home/drogon/Gaussian09/D01/g09/l1.exe "/home/drogon/jobs/gausstest/Gau-3629.inp" -scrdir="/home/drogon/jobs/gausstest/"
 Entering Link 1 = /home/drogon/Gaussian09/D01/g09/l1.exe PID=      3631.
  
 Copyright (c) 1988,1990,1992,1993,1995,1998,2003,2009,2013,
            Gaussian, Inc.  All Rights Reserved.
  
 This is part of the Gaussian(R) 09 program.  It is based on
 the Gaussian(R) 03 system (copyright 2003, Gaussian, Inc.),
 the Gaussian(R) 98 system (copyright 1998, Gaussian, Inc.),
 the Gaussian(R) 94 system (copyright 1995, Gaussian, Inc.),
 the Gaussian 92(TM) system (copyright 1992, Gaussian, Inc.),
 the Gaussian 90(TM) system (copyright 1990, Gaussian, Inc.),
 the Gaussian 88(TM) system (copyright 1988, Gaussian, Inc.),
 the Gaussian 86(TM) system (copyright 1986, Carnegie Mellon
 University), and the Gaussian 82(TM) system (copyright 1983,
 Carnegie Mellon University). Gaussian is a federally registered
 trademark of Gaussian, Inc.
  
 This software contains proprietary and confidential information,
 including trade secrets, belonging to Gaussian, Inc.
  
 This software is provided under written license and may be
 used, copied, transmitted, or stored only in accord with that
 written license.
  
 The following legend is applicable only to US Government
 contracts under FAR:
  
                    RESTRICTED RIGHTS LEGEND
  
 Use, reproduction and disclosure by the US Government is
 subject to restrictions as set forth in subparagraphs (a)
 and (c) of the Commercial Computer Software - Restricted
 Rights clause in FAR 52.227-19.
  
 Gaussian, Inc.
 340 Quinnipiac St., Bldg. 40, Wallingford CT 06492
  
  
 ---------------------------------------------------------------
 Warning -- This program may not be used in any manner that
 competes with the business of Gaussian, Inc. or will provide
 assistance to any competitor of Gaussian, Inc.  The licensee
 of this program is prohibited from giving any competitor of
 Gaussian, Inc. access to this program.  By using this program,
 the user acknowledges that Gaussian, Inc. is engaged in the
 business of creating and licensing software in the field of
 computational chemistry and represents and warrants to the
 licensee that it is not a competitor of Gaussian, Inc. and that
 it will not use this program in any manner prohibited above.
 ---------------------------------------------------------------
  

 Cite this work as:
 Gaussian 09, Revision D.01,
 M. J. Frisch, G. W. Trucks, H. B. Schlegel, G. E. Scuseria, 
 M. A. Robb, J. R. Cheeseman, G. Scalmani, V. Barone, B. Mennucci, 
 G. A. Petersson, H. Nakatsuji, M. Caricato, X. Li, H. P. Hratchian, 
 A. F. Izmaylov, J. Bloino, G. Zheng, J. L. Sonnenberg, M. Hada, 
 M. Ehara, K. Toyota, R. Fukuda, J. Hasegawa, M. Ishida, T. Nakajima, 
 Y. Honda, O. Kitao, H. Nakai, T. Vreven, J. A. Montgomery, Jr., 
 J. E. Peralta, F. Ogliaro, M. Bearpark, J. J. Heyd, E. Brothers, 
 K. N. Kudin, V. N. Staroverov, T. Keith, R. Kobayashi, J. Normand, 
 K. Raghavachari, A. Rendell, J. C. Burant, S. S. Iyengar, J. Tomasi, 
 M. Cossi, N. Rega, J. M. Millam, M. Klene, J. E. Knox, J. B. Cross, 
 V. Bakken, C. Adamo, J. Jaramillo, R. Gomperts, R. E. Stratmann, 
 O. Yazyev, A. J. Austin, R. Cammi, C. Pomelli, J. W. Ochterski, 
 R. L. Martin, K. Morokuma, V. G. Zakrzewski, G. A. Voth, 
 P. Salvador, J. J. Dannenberg, S. Dapprich, A. D. Daniels, 
 O. Farkas, J. B. Foresman, J. V. Ortiz, J. Cioslowski, 
 and D. J. Fox, Gaussian, Inc., Wallingford CT, 2013.
 
 ******************************************
 Gaussian 09:  EM64L-G09RevD.01 24-Apr-2013
                 2-Dec-2020 
 ******************************************
 %chk=ch2cl2.chk
 -----------------------
 # hf/3-21g freq=noraman
 -----------------------
 1/10=4,30=1,38=1/1,3;
 2/12=2,17=6,18=5,40=1/2;
 3/5=5,11=9,16=1,25=1,30=1,71=2,140=1/1,2,3;
 4//1;
 5/5=2,38=5,98=1/2;
 8/6=4,10=90,11=11/1;
 11/6=1,8=1,9=11,15=111,16=1/1,2,10;
 10/6=1/2;
 6/7=2,8=2,9=2,10=2,18=1,28=1/1;
 7/8=1,10=1,25=1/1,2,3,16;
 1/10=4,30=1/3;
 99//99;
 -------------------
 Title Card Required
 -------------------
 Symbolic Z-matrix:
 Charge =  0 Multiplicity = 1
 C                     0.        0.        0.82416 
 H                     0.89866   0.        1.4026 
 H                    -0.89866   0.        1.4026 
 Cl                    0.        1.52494  -0.22795 
 Cl                    0.       -1.52494  -0.22795 
 

 GradGradGradGradGradGradGradGradGradGradGradGradGradGradGradGradGradGrad
 Berny optimization.
 Initialization pass.
 Trust Radius=3.00D-01 FncErr=1.00D-07 GrdErr=1.00D-07
 Number of steps in this run=      2 maximum allowed number of steps=      2.
 GradGradGradGradGradGradGradGradGradGradGradGradGradGradGradGradGradGrad

                          Input orientation:                          
 ---------------------------------------------------------------------
 Center     Atomic      Atomic             Coordinates (Angstroms)
 Number     Number       Type             X           Y           Z
 ---------------------------------------------------------------------
      1          6           0        0.000000    0.000000    0.824163
      2          1           0        0.898658    0.000000    1.402601
      3          1           0       -0.898658    0.000000    1.402601
      4         17           0        0.000000    1.524941   -0.227946
      5         17           0        0.000000   -1.524941   -0.227946
 ---------------------------------------------------------------------
                    Distance matrix (angstroms):
                    1          2          3          4          5
     1  C    0.000000
     2  H    1.068727   0.000000
     3  H    1.068727   1.797316   0.000000
     4  Cl   1.852668   2.406598   2.406598   0.000000
     5  Cl   1.852668   2.406598   2.406598   3.049882   0.000000
 Stoichiometry    CH2Cl2
 Framework group  C2V[C2(C),SGV(Cl2),SGV'(H2)]
 Deg. of freedom     4
 Full point group                 C2V     NOp   4
 Largest Abelian subgroup         C2V     NOp   4
 Largest concise Abelian subgroup C2V     NOp   4
                         Standard orientation:                         
 ---------------------------------------------------------------------
 Center     Atomic      Atomic             Coordinates (Angstroms)
 Number     Number       Type             X           Y           Z
 ---------------------------------------------------------------------
      1          6           0        0.000000    0.000000    0.824163
      2          1           0        0.898658    0.000000    1.402601
      3          1           0       -0.898658    0.000000    1.402601
      4         17           0        0.000000    1.524941   -0.227946
      5         17           0        0.000000   -1.524941   -0.227946
 ---------------------------------------------------------------------
 Rotational constants (GHZ):     29.2902783      3.0766248      2.8350249
 Standard basis: 3-21G (6D, 7F)
 There are    17 symmetry adapted cartesian basis functions of A1  symmetry.
 There are     3 symmetry adapted cartesian basis functions of A2  symmetry.
 There are     7 symmetry adapted cartesian basis functions of B1  symmetry.
 There are    12 symmetry adapted cartesian basis functions of B2  symmetry.
 There are    17 symmetry adapted basis functions of A1  symmetry.
 There are     3 symmetry adapted basis functions of A2  symmetry.
 There are     7 symmetry adapted basis functions of B1  symmetry.
 There are    12 symmetry adapted basis functions of B2  symmetry.
    39 basis functions,    75 primitive gaussians,    39 cartesian basis functions
    21 alpha electrons       21 beta electrons
       nuclear repulsion energy       129.6005749281 Hartrees.
 NAtoms=    5 NActive=    5 NUniq=    3 SFac= 2.78D+00 NAtFMM=   60 NAOKFM=F Big=F
 Integral buffers will be    131072 words long.
 Raffenetti 1 integral format.
 Two-electron integral symmetry is turned on.
 One-electron integrals computed using PRISM.
 NBasis=    39 RedAO= T EigKep=  5.44D-02  NBF=    17     3     7    12
 NBsUse=    39 1.00D-06 EigRej= -1.00D+00 NBFU=    17     3     7    12
 ExpMin= 1.67D-01 ExpMax= 1.38D+03 ExpMxC= 1.38D+03 IAcc=1 IRadAn=         1 AccDes= 0.00D+00
 Harris functional with IExCor=  205 and IRadAn=       1 diagonalized for initial guess.
 HarFok:  IExCor=  205 AccDes= 0.00D+00 IRadAn=         1 IDoV= 1 UseB2=F ITyADJ=14
 ICtDFT=  3500011 ScaDFX=  1.000000  1.000000  1.000000  1.000000
 FoFCou: FMM=F IPFlag=           0 FMFlag=      100000 FMFlg1=           0
         NFxFlg=           0 DoJE=T BraDBF=F KetDBF=T FulRan=T
         wScrn=  0.000000 ICntrl=     500 IOpCl=  0 I1Cent=   200000004 NGrid=           0
         NMat0=    1 NMatS0=      1 NMatT0=    0 NMatD0=    1 NMtDS0=    0 NMtDT0=    0
 Petite list used in FoFCou.
 Initial guess orbital symmetries:
       Occupied  (B2) (A1) (A1) (B2) (A1) (B2) (A1) (B2) (A2) (B1)
                 (A1) (A1) (B2) (A1) (B1) (A1) (B2) (A1) (A2) (B1)
                 (B2)
       Virtual   (A1) (B2) (A1) (B1) (A1) (B2) (A1) (B1) (A1) (A2)
                 (B2) (A1) (B2) (B1) (B2) (B1) (A1) (A1)
 The electronic state of the initial guess is 1-A1.
 Keep R1 ints in memory in symmetry-blocked form, NReq=1139177.
 Requested convergence on RMS density matrix=1.00D-08 within 128 cycles.
 Requested convergence on MAX density matrix=1.00D-06.
 Requested convergence on             energy=1.00D-06.
 No special actions if energy rises.
 SCF Done:  E(RHF) =  -953.390599998     A.U. after   11 cycles
            NFock= 11  Conv=0.11D-08     -V/T= 2.0008
 Range of M.O.s used for correlation:     1    39
 NBasis=    39 NAE=    21 NBE=    21 NFC=     0 NFV=     0
 NROrb=     39 NOA=    21 NOB=    21 NVA=    18 NVB=    18
 Symmetrizing basis deriv contribution to polar:
 IMax=3 JMax=2 DiffMx= 0.00D+00
 G2DrvN: will do     6 centers at a time, making    1 passes.
 Calling FoFCou, ICntrl=  3107 FMM=F I1Cent=   0 AccDes= 0.00D+00.
 End of G2Drv F.D. properties file   721 does not exist.
 End of G2Drv F.D. properties file   722 does not exist.
 End of G2Drv F.D. properties file   788 does not exist.
          IDoAtm=11111
          Differentiating once with respect to electric field.
                with respect to dipole field.
          Differentiating once with respect to nuclear coordinates.
 Keep R1 ints in memory in symmetry-blocked form, NReq=1119161.
          There are    12 degrees of freedom in the 1st order CPHF.  IDoFFX=4 NUNeed=    12.
     12 vectors produced by pass  0 Test12= 3.15D-15 8.33D-09 XBig12= 1.17D+01 2.10D+00.
 AX will form    12 AO Fock derivatives at one time.
     12 vectors produced by pass  1 Test12= 3.15D-15 8.33D-09 XBig12= 4.90D-01 2.97D-01.
     12 vectors produced by pass  2 Test12= 3.15D-15 8.33D-09 XBig12= 2.66D-02 5.42D-02.
     12 vectors produced by pass  3 Test12= 3.15D-15 8.33D-09 XBig12= 2.46D-04 5.24D-03.
     12 vectors produced by pass  4 Test12= 3.15D-15 8.33D-09 XBig12= 1.42D-06 3.05D-04.
     12 vectors produced by pass  5 Test12= 3.15D-15 8.33D-09 XBig12= 8.58D-09 2.33D-05.
      7 vectors produced by pass  6 Test12= 3.15D-15 8.33D-09 XBig12= 8.56D-11 3.58D-06.
      2 vectors produced by pass  7 Test12= 3.15D-15 8.33D-09 XBig12= 3.74D-13 1.83D-07.
      1 vectors produced by pass  8 Test12= 3.15D-15 8.33D-09 XBig12= 1.90D-15 1.32D-08.
 InvSVY:  IOpt=1 It=  1 EMax= 1.33D-15
 Solved reduced A of dimension    82 with    12 vectors.
 Isotropic polarizability for W=    0.000000       26.85 Bohr**3.
 End of Minotr F.D. properties file   721 does not exist.
 End of Minotr F.D. properties file   722 does not exist.
 End of Minotr F.D. properties file   788 does not exist.

 **********************************************************************

            Population analysis using the SCF density.

 **********************************************************************

 Orbital symmetries:
       Occupied  (B2) (A1) (A1) (B2) (A1) (B2) (A1) (B2) (A2) (A1)
                 (B1) (A1) (B2) (A1) (B1) (A1) (B2) (A2) (A1) (B1)
                 (B2)
       Virtual   (A1) (B2) (A1) (B1) (A1) (B2) (B1) (A1) (A1) (B2)
                 (A2) (A1) (B2) (B1) (B2) (B1) (A1) (A1)
 The electronic state is 1-A1.
 Alpha  occ. eigenvalues -- -104.12275-104.12252 -11.33445 -10.51736 -10.51658
 Alpha  occ. eigenvalues --   -7.98070  -7.98069  -7.97636  -7.97623  -7.97618
 Alpha  occ. eigenvalues --   -7.97613  -1.18827  -1.09605  -0.92095  -0.69930
 Alpha  occ. eigenvalues --   -0.60514  -0.56535  -0.47732  -0.47339  -0.46031
 Alpha  occ. eigenvalues --   -0.45165
 Alpha virt. eigenvalues --    0.12052   0.17054   0.25902   0.28592   0.65121
 Alpha virt. eigenvalues --    0.72588   0.75924   0.76034   0.79607   0.81696
 Alpha virt. eigenvalues --    0.81898   0.95892   0.96210   0.97473   1.06171
 Alpha virt. eigenvalues --    1.27874   1.29555   1.91363
          Condensed to atoms (all electrons):
               1          2          3          4          5
     1  C    5.725444   0.342008   0.342008   0.146985   0.146985
     2  H    0.342008   0.423356  -0.017230  -0.038538  -0.038538
     3  H    0.342008  -0.017230   0.423356  -0.038538  -0.038538
     4  Cl   0.146985  -0.038538  -0.038538  16.970115  -0.062796
     5  Cl   0.146985  -0.038538  -0.038538  -0.062796  16.970115
 Mulliken charges:
               1
     1  C   -0.703429
     2  H    0.328942
     3  H    0.328942
     4  Cl   0.022773
     5  Cl   0.022773
 Sum of Mulliken charges =   0.00000
 Mulliken charges with hydrogens summed into heavy atoms:
               1
     1  C   -0.045546
     4  Cl   0.022773
     5  Cl   0.022773
 APT charges:
               1
     1  C    0.715533
     2  H   -0.002912
     3  H   -0.002912
     4  Cl  -0.354855
     5  Cl  -0.354855
 Sum of APT charges =   0.00000
 APT charges with hydrogens summed into heavy atoms:
               1
     1  C    0.709710
     4  Cl  -0.354855
     5  Cl  -0.354855
 Electronic spatial extent (au):  <R**2>=            396.6641
 Charge=              0.0000 electrons
 Dipole moment (field-independent basis, Debye):
    X=              0.0000    Y=              0.0000    Z=              2.5018  Tot=              2.5018
 Quadrupole moment (field-independent basis, Debye-Ang):
   XX=            -31.9267   YY=            -36.8912   ZZ=            -30.2255
   XY=              0.0000   XZ=              0.0000   YZ=              0.0000
 Traceless Quadrupole moment (field-independent basis, Debye-Ang):
   XX=              1.0878   YY=             -3.8767   ZZ=              2.7890
   XY=              0.0000   XZ=              0.0000   YZ=              0.0000
 Octapole moment (field-independent basis, Debye-Ang**2):
  XXX=              0.0000  YYY=              0.0000  ZZZ=              2.0737  XYY=              0.0000
  XXY=              0.0000  XXZ=              2.2163  XZZ=              0.0000  YZZ=              0.0000
  YYZ=             -3.2980  XYZ=              0.0000
 Hexadecapole moment (field-independent basis, Debye-Ang**3):
 XXXX=            -39.8032 YYYY=           -391.1782 ZZZZ=            -75.3533 XXXY=              0.0000
 XXXZ=              0.0000 YYYX=              0.0000 YYYZ=              0.0000 ZZZX=              0.0000
 ZZZY=              0.0000 XXYY=            -75.2046 XXZZ=            -16.9228 YYZZ=            -76.2514
 XXYZ=              0.0000 YYXZ=              0.0000 ZZXY=              0.0000
 N-N= 1.296005749281D+02 E-N=-2.527818122200D+03  KE= 9.526711233194D+02
 Symmetry A1   KE= 4.467766826312D+02
 Symmetry A2   KE= 4.537490281907D+01
 Symmetry B1   KE= 4.739692705638D+01
 Symmetry B2   KE= 4.131226108128D+02
  Exact polarizability:  14.165   0.000  43.660   0.000   0.000  22.718
 Approx polarizability:  11.499   0.000  32.712   0.000   0.000  18.983
 Calling FoFJK, ICntrl=    100127 FMM=F ISym2X=1 I1Cent= 0 IOpClX= 0 NMat=1 NMatS=1 NMatT=0.
 Full mass-weighted force constant matrix:
 Low frequencies ---  -11.8161   -3.8898   -0.0023    0.0035    0.0038    1.7281
 Low frequencies ---  277.9735  673.6249  730.4283
 Diagonal vibrational polarizability:
        0.0632437       8.5309570       1.8501773
 Harmonic frequencies (cm**-1), IR intensities (KM/Mole), Raman scattering
 activities (A**4/AMU), depolarization ratios for plane and unpolarized
 incident light, reduced masses (AMU), force constants (mDyne/A),
 and normal coordinates:
                      1                      2                      3
                     A1                     A1                     B2
 Frequencies --    277.9735               673.6249               730.4283
 Red. masses --     20.0519                 7.4463                 8.5211
 Frc consts  --      0.9129                 1.9908                 2.6786
 IR Inten    --      1.1503                24.3721               151.1781
  Atom  AN      X      Y      Z        X      Y      Z        X      Y      Z
     1   6     0.00   0.00  -0.41     0.00   0.00   0.63     0.00   0.71   0.00
     2   1    -0.01   0.00  -0.40     0.09   0.00   0.51     0.00   0.47   0.00
     3   1     0.01   0.00  -0.40    -0.09   0.00   0.51     0.00   0.47   0.00
     4  17     0.00   0.50   0.08     0.00   0.12  -0.12     0.00  -0.14   0.10
     5  17     0.00  -0.50   0.08     0.00  -0.12  -0.12     0.00  -0.14  -0.10
                      4                      5                      6
                     B1                     A2                     B2
 Frequencies --    934.4559              1256.0434              1385.2816
 Red. masses --      1.3116                 1.0176                 1.1088
 Frc consts  --      0.6748                 0.9459                 1.2536
 IR Inten    --      1.8655                 0.0000                64.5689
  Atom  AN      X      Y      Z        X      Y      Z        X      Y      Z
     1   6     0.16   0.00   0.00     0.00   0.00   0.00     0.00  -0.09   0.00
     2   1    -0.25   0.00   0.65     0.00   0.71   0.00     0.00   0.70   0.00
     3   1    -0.25   0.00  -0.65     0.00  -0.71   0.00     0.00   0.70   0.00
     4  17    -0.02   0.00   0.00     0.01   0.00   0.00     0.00   0.00   0.01
     5  17    -0.02   0.00   0.00    -0.01   0.00   0.00     0.00   0.00  -0.01
                      7                      8                      9
                     A1                     A1                     B1
 Frequencies --   1587.8520              3361.4312              3467.0128
 Red. masses --      1.0750                 1.0514                 1.1201
 Frc consts  --      1.5970                 6.9998                 7.9324
 IR Inten    --      0.0734                 1.4138                 2.5695
  Atom  AN      X      Y      Z        X      Y      Z        X      Y      Z
     1   6     0.00   0.00  -0.08     0.00   0.00  -0.06    -0.10   0.00   0.00
     2   1    -0.40   0.00   0.58     0.60   0.00   0.36     0.60   0.00   0.38
     3   1     0.40   0.00   0.58    -0.60   0.00   0.36     0.60   0.00  -0.38
     4  17     0.00   0.00   0.00     0.00   0.00   0.00     0.00   0.00   0.00
     5  17     0.00   0.00   0.00     0.00   0.00   0.00     0.00   0.00   0.00

 -------------------
 - Thermochemistry -
 -------------------
 Temperature   298.150 Kelvin.  Pressure   1.00000 Atm.
 Atom     1 has atomic number  6 and mass  12.00000
 Atom     2 has atomic number  1 and mass   1.00783
 Atom     3 has atomic number  1 and mass   1.00783
 Atom     4 has atomic number 17 and mass  34.96885
 Atom     5 has atomic number 17 and mass  34.96885
 Molecular mass:    83.95336 amu.
 Principal axes and moments of inertia in atomic units:
                           1         2         3
     Eigenvalues --    61.61571 586.59776 636.58743
           X            0.00000   0.00000   1.00000
           Y            1.00000   0.00000   0.00000
           Z            0.00000   1.00000   0.00000
 This molecule is an asymmetric top.
 Rotational symmetry number  2.
 Rotational temperatures (Kelvin)      1.40571     0.14765     0.13606
 Rotational constants (GHZ):          29.29028     3.07662     2.83502
 Zero-point vibrational energy      81789.3 (Joules/Mol)
                                   19.54811 (Kcal/Mol)
 Warning -- explicit consideration of   1 degrees of freedom as
           vibrations may cause significant error
 Vibrational temperatures:    399.94   969.19  1050.92  1344.47  1807.16
          (Kelvin)           1993.11  2284.56  4836.34  4988.25
 
 Zero-point correction=                           0.031152 (Hartree/Particle)
 Thermal correction to Energy=                    0.034730
 Thermal correction to Enthalpy=                  0.035674
 Thermal correction to Gibbs Free Energy=         0.004883
 Sum of electronic and zero-point Energies=           -953.359448
 Sum of electronic and thermal Energies=              -953.355870
 Sum of electronic and thermal Enthalpies=            -953.354926
 Sum of electronic and thermal Free Energies=         -953.385717
 
                     E (Thermal)             CV                S
                      KCal/Mol        Cal/Mol-Kelvin    Cal/Mol-Kelvin
 Total                   21.793             10.120             64.804
 Electronic               0.000              0.000              0.000
 Translational            0.889              2.981             39.197
 Rotational               0.889              2.981             23.268
 Vibrational             20.016              4.159              2.339
 Vibration     1          0.679              1.714              1.546
                       Q            Log10(Q)             Ln(Q)
 Total Bot       0.567251D-02         -2.246224         -5.172123
 Total V=0       0.120955D+13         12.082624         27.821271
 Vib (Bot)       0.691038D-14        -14.160498        -32.605752
 Vib (Bot)    1  0.692392D+00         -0.159648         -0.367602
 Vib (V=0)       0.147350D+01          0.168351          0.387642
 Vib (V=0)    1  0.135405D+01          0.131636          0.303103
 Electronic      0.100000D+01          0.000000          0.000000
 Translational   0.302352D+08          7.480512         17.224516
 Rotational      0.271495D+05          4.433761         10.209113
 ***** Axes restored to original set *****
 -------------------------------------------------------------------
 Center     Atomic                   Forces (Hartrees/Bohr)
 Number     Number              X              Y              Z
 -------------------------------------------------------------------
      1        6           0.000000000    0.000000000   -0.000143745
      2        1           0.000107849    0.000000000    0.000039627
      3        1          -0.000107849    0.000000000    0.000039627
      4       17           0.000000000   -0.000005325    0.000032245
      5       17           0.000000000    0.000005325    0.000032245
 -------------------------------------------------------------------
 Cartesian Forces:  Max     0.000143745 RMS     0.000057273

 GradGradGradGradGradGradGradGradGradGradGradGradGradGradGradGradGradGrad
 Berny optimization.
 Search for a local minimum.
 Step number   1 out of a maximum of    2
 All quantities printed in internal units (Hartrees-Bohrs-Radians)
 Second derivative matrix not updated -- analytic derivatives used.
 The second derivative matrix:
                          X1        Y1        Z1        X2        Y2
           X1           0.68858
           Y1           0.00000   0.25216
           Z1           0.00000   0.00000   0.44480
           X2          -0.30742   0.00000  -0.15254   0.31281
           Y2           0.00000  -0.04133   0.00000   0.00000   0.06329
           Z2          -0.15475   0.00000  -0.15193   0.15815   0.00000
           X3          -0.30742   0.00000   0.15254  -0.01751   0.00000
           Y3           0.00000  -0.04133   0.00000   0.00000   0.00371
           Z3           0.15475   0.00000  -0.15193  -0.01774   0.00000
           X4          -0.03687   0.00000   0.00000   0.00606   0.01757
           Y4           0.00000  -0.08475   0.05664  -0.00424  -0.01283
           Z4           0.00000   0.04277  -0.07048   0.00606   0.02157
           X5          -0.03687   0.00000   0.00000   0.00606  -0.01757
           Y5           0.00000  -0.08475  -0.05664   0.00424  -0.01283
           Z5           0.00000  -0.04277  -0.07048   0.00606  -0.02157
                          Z2        X3        Y3        Z3        X4
           Z2           0.15497
           X3           0.01774   0.31281
           Y3           0.00000   0.00000   0.06329
           Z3           0.01706  -0.15815   0.00000   0.15497
           X4          -0.01057   0.00606  -0.01757   0.01057   0.02273
           Y4           0.00820   0.00424  -0.01283   0.00820   0.00000
           Z4          -0.01005  -0.00606   0.02157  -0.01005   0.00000
           X5          -0.01057   0.00606   0.01757   0.01057   0.00201
           Y5          -0.00820  -0.00424  -0.01283  -0.00820   0.00000
           Z5          -0.01005  -0.00606  -0.02157  -0.01005   0.00000
                          Y4        Z4        X5        Y5        Z5
           Y4           0.14268
           Z4          -0.07948   0.08311
           X5           0.00000   0.00000   0.02273
           Y5          -0.03227  -0.00643   0.00000   0.14268
           Z5           0.00643   0.00748   0.00000   0.07948   0.08311
 ITU=  0
     Eigenvalues ---    0.05463   0.06864   0.07682   0.10877   0.14282
     Eigenvalues ---    0.24198   0.34597   0.73933   0.94018
 Angle between quadratic step and forces=  54.66 degrees.
 ClnCor:  largest displacement from symmetrization is 3.11D-11 for atom     2.
 Linear search not attempted -- first point.
 ClnCor:  largest displacement from symmetrization is 1.54D-27 for atom     2.
 TrRot=  0.000000  0.000000  0.000111  0.000000  0.000000  0.000000
 Variable       Old X    -DE/DX   Delta X   Delta X   Delta X     New X
                                 (Linear)    (Quad)   (Total)
    X1        0.00000   0.00000   0.00000   0.00000   0.00000   0.00000
    Y1        0.00000   0.00000   0.00000   0.00000   0.00000   0.00000
    Z1        1.55744  -0.00014   0.00000  -0.00030  -0.00019   1.55725
    X2        1.69822   0.00011   0.00000   0.00031   0.00031   1.69852
    Y2        0.00000   0.00000   0.00000   0.00000   0.00000   0.00000
    Z2        2.65053   0.00004   0.00000  -0.00028  -0.00017   2.65036
    X3       -1.69822  -0.00011   0.00000  -0.00031  -0.00031  -1.69852
    Y3        0.00000   0.00000   0.00000   0.00000   0.00000   0.00000
    Z3        2.65053   0.00004   0.00000  -0.00028  -0.00017   2.65036
    X4        0.00000   0.00000   0.00000   0.00000   0.00000   0.00000
    Y4        2.88172  -0.00001   0.00000   0.00017   0.00017   2.88190
    Z4       -0.43076   0.00003   0.00000   0.00016   0.00027  -0.43049
    X5        0.00000   0.00000   0.00000   0.00000   0.00000   0.00000
    Y5       -2.88172   0.00001   0.00000  -0.00017  -0.00017  -2.88190
    Z5       -0.43076   0.00003   0.00000   0.00016   0.00027  -0.43049
         Item               Value     Threshold  Converged?
 Maximum Force            0.000144     0.000450     YES
 RMS     Force            0.000057     0.000300     YES
 Maximum Displacement     0.000307     0.001800     YES
 RMS     Displacement     0.000181     0.001200     YES
 Predicted change in Energy=-4.765851D-08
 Optimization completed.
    -- Stationary point found.
 GradGradGradGradGradGradGradGradGradGradGradGradGradGradGradGradGradGrad

 1\1\GINC-DREADFORT\Freq\RHF\3-21G\C1H2Cl2\DROGON\02-Dec-2020\0\\# hf/3
 -21g freq=noraman\\Title Card Required\\0,1\C,0.,0.,0.824163\H,0.89865
 8,0.,1.402601\H,-0.898658,0.,1.402601\Cl,0.,1.524941,-0.227946\Cl,0.,-
 1.524941,-0.227946\\Version=EM64L-G09RevD.01\State=1-A1\HF=-953.3906\R
 MSD=1.139e-09\RMSF=5.727e-05\ZeroPoint=0.0311519\Thermal=0.0347297\Dip
 ole=0.,0.,0.9842844\DipoleDeriv=0.1809419,0.,0.,0.,1.4527897,0.,0.,0.,
 0.5128677,0.082566,0.,-0.0141694,0.,-0.1058135,0.,-0.0340702,0.,0.0145
 126,0.082566,0.,0.0141694,0.,-0.1058135,0.,0.0340702,0.,0.0145127,-0.1
 730369,0.,0.,0.,-0.6205813,0.1161073,0.,0.2172426,-0.2709465,-0.173036
 9,0.,0.,0.,-0.6205813,-0.1161073,0.,-0.2172427,-0.2709465\Polar=14.164
 7081,0.,43.6598598,0.,0.,22.7183509\HyperPolar=-0.000001,0.0000014,0.0
 000003,-0.0000006,30.6840793,0.0000003,9.5306552,-0.0000034,-0.0000008
 ,28.4024573\PG=C02V [C2(C1),SGV(Cl2),SGV'(H2)]\NImag=0\\0.68858017,0.,
 0.25216488,0.,0.,0.44480147,-0.30742013,0.,-0.15253511,0.31280554,0.,-
 0.04133293,0.,0.,0.06328594,-0.15475332,0.,-0.15192539,0.15815086,0.,0
 .15497074,-0.30742013,0.,0.15253511,-0.01751293,0.,0.01774471,0.312805
 54,0.,-0.04133294,0.,0.,0.00371265,0.,0.,0.06328594,0.15475332,0.,-0.1
 5192539,-0.01774471,0.,0.01706337,-0.15815086,0.,0.15497074,-0.0368699
 5,0.,0.,0.00606376,0.01757218,-0.01057113,0.00606376,-0.01757219,0.010
 57113,0.02272754,0.,-0.08474951,0.05663882,-0.00424053,-0.01283283,0.0
 0820464,0.00424052,-0.01283283,0.00820464,0.,0.14268303,0.,0.04276831,
 -0.07047535,0.00606448,0.02156758,-0.01005436,-0.00606448,0.02156758,-
 0.01005436,0.,-0.07947578,0.08310781,-0.03686995,0.,0.,0.00606376,-0.0
 1757219,-0.01057113,0.00606376,0.01757218,0.01057113,0.00201488,0.,0.,
 0.02272754,0.,-0.08474951,-0.05663882,0.00424052,-0.01283283,-0.008204
 64,-0.00424053,-0.01283283,-0.00820464,0.,-0.03226787,-0.00642769,0.,0
 .14268303,0.,-0.04276831,-0.07047535,0.00606448,-0.02156758,-0.0100543
 6,-0.00606448,-0.02156758,-0.01005436,0.,0.00642769,0.00747626,0.,0.07
 947578,0.08310781\\0.,0.,0.00014374,-0.00010785,0.,-0.00003963,0.00010
 785,0.,-0.00003963,0.,0.00000532,-0.00003225,0.,-0.00000532,-0.0000322
 5\\\@


 THERE IS NO CURE FOR BIRTH AND DEATH SAVE TO ENJOY THE INTERVAL.

                               -- GEORGE SANTAYANA
 Job cpu time:       0 days  0 hours  0 minutes  2.9 seconds.
 File lengths (MBytes):  RWF=      5 Int=      0 D2E=      0 Chk=      1 Scr=      1
 Normal termination of Gaussian 09 at Wed Dec  2 15:38:48 2020.
